30
	Energy:     100.9101824
C         -1.53410        1.61118        0.05094
C         -2.68295        0.80153        0.02338
C         -2.56580       -0.60399       -0.02877
C         -1.29834       -1.21375       -0.05176
C         -0.17232       -0.39122       -0.02235
C         -0.29027        0.98252        0.02579
C          1.05776        1.53377        0.04119
C          1.97673        0.37900        0.00162
C          3.32708        0.40290        0.00005
H         -1.20123       -2.29080       -0.09125
H         -3.66344        1.25952        0.04175
H         -3.45772       -1.21667       -0.05074
H         -1.61427        2.68973        0.09039
N          1.17980       -0.79851       -0.03597
H          1.50628       -1.77377       -0.07115
O          1.34919        2.71821        0.08278
C          4.25131       -0.74844       -0.03000
C          5.59815       -0.18986       -0.01767
C          5.47230        1.18364        0.01380
C          6.59161        2.01483        0.02854
C          7.86311        1.41480        0.01268
C          7.99045        0.00953       -0.01660
C          6.84727       -0.80947       -0.03243
H          6.48552        3.09157        0.05149
H          8.74986        2.03529        0.02350
H          8.97473       -0.44043       -0.02745
H          6.93642       -1.88773       -0.05542
N          4.11915        1.58347        0.02778
H          3.78959        2.55783        0.04982
O          3.96426       -1.93446       -0.05598
